          13
 Step            1
Au      1.4244863390     -1.4244304365      1.2709314593
Au     -1.4245653208      1.4244390361      1.2709655529
Au     -1.4244022447     -1.4245199414      1.2709305847
Au      1.4244599869      1.4245425612      1.2709674280
Au     -2.5623107349      2.5621498178     -0.9984142612
Au      2.5622959543     -2.5621712824     -0.9984167489
Au      2.5622666509      2.5622035955     -0.9984142940
Au      0.0000000000      0.0000000000      3.1954930152
Au     -2.5622467049     -2.5622122905     -0.9984287158
Pt      1.8043032931      0.0000000000     -1.0851335526
Pt      0.0000001108     -1.8044638230     -1.0851784214
Pt     -1.8042922635      0.0000021817     -1.0851534578
Pt      0.0000050305      1.8044608732     -1.0850925890
          13
 Step            2
Au      1.4252036443     -1.4237495968      1.2712540958
Au     -1.4254344586      1.4247760061      1.2715597536
Au     -1.4236249217     -1.4249613755      1.2709090037
Au      1.4242279544      1.4247697253      1.2712876836
Au     -2.5637493981      2.5614335938     -0.9989671386
Au      2.5629164981     -2.5608417579     -0.9982939907
Au      2.5613814245      2.5629669856     -0.9985684450
Au      0.0000000000     -0.0000000000      3.1954077638
Au     -2.5617270800     -2.5630809756     -0.9984926234
Pt      1.8044149861     -0.0000000000     -1.0852152291
Pt      0.0008829591     -1.8045974168     -1.0854697407
Pt     -1.8042315607     -0.0009868770     -1.0852032599
Pt     -0.0002514201      1.8042586058     -1.0851565102
          13
 Step            3
Au      1.4258880361     -1.4230994259      1.2715622060
Au     -1.4262646573      1.4250974408      1.2721268859
Au     -1.4228828634     -1.4253823613      1.2708885011
Au      1.4240065591      1.4249866131      1.2715935564
Au     -2.5651222973      2.5607493097     -0.9994951066
Au      2.5635081343     -2.5595727907     -0.9981769759
Au      2.5605364449      2.5636952008     -0.9987156471
Au      0.0000000000     -0.0000000000      3.1953263135
Au     -2.5612309725     -2.5639100279     -0.9985538001
Pt      1.8045220661     -0.0000000000     -1.0852930942
Pt      0.0017256110     -1.8047247995     -1.0857477680
Pt     -1.8041733019     -0.0019307326     -1.0852507286
Pt     -0.0004959793      1.8040657300     -1.0852174024
          13
 Step            4
Au      1.4265852183     -1.4224365476      1.2718763971
Au     -1.4271113301      1.4254249781      1.2727048232
Au     -1.4221265109     -1.4258109571      1.2708676741
Au      1.4237810910      1.4252076231      1.2719054640
Au     -2.5665210462      2.5600513244     -1.0000334736
Au      2.5641103442     -2.5582797390     -0.9980578836
Au      2.5596753710      2.5644367504     -0.9988657490
Au     -0.0000000000      0.0000000000      3.1952432290
Au     -2.5607253726     -2.5647547271     -0.9986163257
Pt      1.8046316879     -0.0000000000     -1.0853723449
Pt      0.0025842071     -1.8048545286     -1.0860310875
Pt     -1.8041135734     -0.0028923110     -1.0852989993
Pt     -0.0007449886      1.8038692919     -1.0852792871
          13
 Step            5
Au      1.4273365370     -1.4217215640      1.2722153707
Au     -1.4280248420      1.4257781525      1.2733278442
Au     -1.4213109220     -1.4262725034      1.2708452598
Au      1.4235382188      1.4254458294      1.2722419368
Au     -2.5680285979      2.5592980850     -1.0006142744
Au      2.5647587690     -2.5568858968     -0.9979296564
Au      2.5587471112      2.5652355178     -0.9990276760
Au      0.0000000000     -0.0000000000      3.1951535810
Au     -2.5601803023     -2.5656651557     -0.9986839266
Pt      1.8047504105     -0.0000000000     -1.0854576783
Pt      0.0035096484     -1.8049942957     -1.0863365407
Pt     -1.8040487525     -0.0039286224     -1.0853508793
Pt     -0.0010132022      1.8036576026     -1.0853457747
          13
 Step            6
Au      1.4280818289     -1.4210116682      1.2725520445
Au     -1.4289321612      1.4261288139      1.2739460648
Au     -1.4205013352     -1.4267299673      1.2708230230
Au      1.4232974419      1.4256821097      1.2725760565
Au     -2.5695242173      2.5585497909     -1.0011911001
Au      2.5654014224     -2.5555028862     -0.9978025649
Au      2.5578259968      2.5660274358     -0.9991884853
Au      0.0000000000     -0.0000000000      3.1950645488
Au     -2.5596394424     -2.5665683807     -0.9987512042
Pt      1.8048687749      0.0000000000     -1.0855422580
Pt      0.0044277859     -1.8051329181     -1.0866397018
Pt     -1.8039839662     -0.0049566491     -1.0854021632
Pt     -0.0012791324      1.8034475716     -1.0854114821
          13
 Step            7
Au      1.4288830309     -1.4202477996      1.2729144628
Au     -1.4299088192      1.4265062416      1.2746108670
Au     -1.4196303935     -1.4272212863      1.2707990834
Au      1.4230388047      1.4259360509      1.2729356174
Au     -2.5711321816      2.5577441291     -1.0018119939
Au      2.5660916445     -2.5540157800     -0.9976660500
Au      2.5568354781      2.5668782054     -0.9993615650
Au      0.0000000000     -0.0000000000      3.1949687344
Au     -2.5590578787     -2.5675394342     -0.9988237657
Pt      1.8049966688      0.0000000000     -1.0856331094
Pt      0.0054148772     -1.8052819242     -1.0869658017
Pt     -1.8039137617     -0.0060617905     -1.0854570594
Pt     -0.0015648682      1.8032217006     -1.0854818068
          13
 Step            8
Au      1.4297241594     -1.4194450576      1.2732954946
Au     -1.4309355788      1.4269030592      1.2753090149
Au     -1.4187153363     -1.4277365455      1.2707738841
Au      1.4227675259      1.4262025415      1.2733135056
Au     -2.5728204360      2.5568969262     -1.0024647371
Au      2.5668155481     -2.5524541918     -0.9975228409
Au      2.5557952654      2.5677707195     -0.9995434980
Au     -0.0000000000      0.0000000000      3.1948680462
Au     -2.5584472132     -2.5685589418     -0.9989001957
Pt      1.8051316395      0.0000000000     -1.0857284112
Pt      0.0064512268     -1.8054383288     -1.0873083895
Pt     -1.8038394115     -0.0072219951     -1.0855144099
Pt     -0.0018646868      1.8029844416     -1.0855552668
          13
 Step            9
Au      1.4305785114     -1.4186288390      1.2736831133
Au     -1.4319799947      1.4273067849      1.2760183225
Au     -1.4177851223     -1.4282593102      1.2707481873
Au      1.4224922538      1.4264730889      1.2736977432
Au     -2.5745353639      2.5560348934     -1.0031287094
Au      2.5675501164     -2.5508677020     -0.9973774917
Au      2.5547383523      2.5686765513     -0.9997285302
Au      0.0000000000     -0.0000000000      3.1947656852
Au     -2.5578268361     -2.5695945250     -0.9989780834
Pt      1.8052694292      0.0000000000     -1.0858251337
Pt      0.0075039146     -1.8055971345     -1.0876566348
Pt     -1.8037632217     -0.0084004273     -1.0855723209
Pt     -0.0021690596      1.8027433141     -1.0856294481
          13
 Step           10
Au      1.4315000450     -1.4177474757      1.2741018952
Au     -1.4331082564      1.4277430998      1.2767836198
Au     -1.4167808767     -1.4288224734      1.2707203302
Au      1.4221956794      1.4267647172      1.2741126548
Au     -2.5763852880      2.5551033805     -1.0038460166
Au      2.5683416084     -2.5491560785     -0.9972208252
Au      2.5535979645      2.5696527522     -0.9999283840
Au     -0.0000000000      0.0000000000      3.1946551860
Au     -2.5571575969     -2.5707115632     -0.9990623787
Pt      1.8054188439      0.0000000000     -1.0859293796
Pt      0.0086393952     -1.8057683831     -1.0880325838
Pt     -1.8036802492     -0.0096714847     -1.0856343870
Pt     -0.0024971849      1.8024830164     -1.0857089539
          13
 Step           11
Au      1.4324227436     -1.4168639886      1.2745219312
Au     -1.4342397454      1.4281809004      1.2775500783
Au     -1.4157744206     -1.4293855875      1.2706922656
Au      1.4218991017      1.4270564897      1.2745285536
Au     -2.5782376769      2.5541688895     -1.0045654154
Au      2.5691332529     -2.5474419268     -0.9970640718
Au      2.5524557597      2.5706292646     -1.0001287728
Au     -0.0000000000      0.0000000000      3.1945444675
Au     -2.5564874467     -2.5718300220     -0.9991470655
Pt      1.8055692359      0.0000000000     -1.0860336728
Pt      0.0097763047     -1.8059397775     -1.0884093603
Pt     -1.8035963459     -0.0109441059     -1.0856960850
Pt     -0.0028255397      1.8022221606     -1.0857879981
          13
 Step           12
Au      1.4333492963     -1.4159758141      1.2749444931
Au     -1.4353777898      1.4286216511      1.2783199343
Au     -1.4147627932     -1.4299502185      1.2706638723
Au      1.4216017387      1.4273491725      1.2749466578
Au     -2.5800978687      2.5532286993     -1.0052890829
Au      2.5699273043     -2.5457203374     -0.9969067704
Au      2.5513084830      2.5716087970     -1.0003303025
Au     -0.0000000000      0.0000000000      3.1944332130
Au     -2.5558145421     -2.5729530776     -0.9992323946
Pt      1.8057210685      0.0000000000     -1.0861383215
Pt      0.0109178391     -1.8061118736     -1.0887880891
Pt     -1.8035112350     -0.0122219074     -1.0857575443
Pt     -0.0031550725      1.8019599209     -1.0858667501
          13
 Step           13
Au      1.4342282852     -1.4151323224      1.2753461376
Au     -1.4364591308      1.4290410170      1.2790504112
Au     -1.4138021703     -1.4304850149      1.2706366916
Au      1.4213201386      1.4276264628      1.2753437192
Au     -2.5818625231      2.5523350797     -1.0059768456
Au      2.5706797567     -2.5440870058     -0.9967576489
Au      2.5502199006      2.5725369203     -1.0005217931
Au     -0.0000000000      0.0000000000      3.1943276092
Au     -2.5551763343     -2.5740183172     -0.9993136103
Pt      1.8058658498      0.0000000000     -1.0862375253
Pt      0.0120005142     -1.8062751539     -1.0891477627
Pt     -1.8034297044     -0.0134338897     -1.0858153035
Pt     -0.0034675066      1.8017108377     -1.0859407899
          13
 Step           14
Au      1.4351625266     -1.4142348563      1.2757738943
Au     -1.4376102925      1.4294882400      1.2798269584
Au     -1.4127801561     -1.4310524556      1.2706075045
Au      1.4210214447      1.4279207127      1.2757661907
Au     -2.5837379971      2.5513835000     -1.0067092356
Au      2.5714785701     -2.5423509624     -0.9965992607
Au      2.5490627515      2.5735220602     -1.0007256655
Au     -0.0000000000      0.0000000000      3.1942153093
Au     -2.5544982792     -2.5751502620     -0.9994002176
Pt      1.8060205427      0.0000000000     -1.0863428920
Pt      0.0131508574     -1.8064487731     -1.0895304808
Pt     -1.8033421820     -0.0147217311     -1.0858760685
Pt     -0.0037993768      1.8014457095     -1.0860187166
          13
 Step           15
Au      1.4361035474     -1.4133298740      1.2762056650
Au     -1.4387717454      1.4299402987      1.2806092799
Au     -1.4117496606     -1.4316229875      1.2705777772
Au      1.4207212216      1.4282165968      1.2761921861
Au     -2.5856269605      2.5504231208     -1.0074484011
Au      2.5722822293     -2.5406022969     -0.9964398302
Au      2.5478970573      2.5745129597     -1.0009313747
Au     -0.0000000000      0.0000000000      3.1941021447
Au     -2.5538155902     -2.5762901521     -0.9994877440
Pt      1.8061771716      0.0000000000     -1.0864489482
Pt      0.0143091385     -1.8066237039     -1.0899164458
Pt     -1.8032531222     -0.0160185902     -1.0859366027
Pt     -0.0041334433      1.8011782501     -1.0860963882
          13
 Step           16
Au      1.4370679300     -1.4124013948      1.2766491307
Au     -1.4399640640      1.4304053752      1.2814111786
Au     -1.4106924585     -1.4322065607      1.2705469406
Au      1.4204142729      1.4285192405      1.2766292391
Au     -2.5875626592      2.5494369498     -1.0082074932
Au      2.5731048098     -2.5388102555     -0.9962765453
Au      2.5467023293      2.5755269159     -1.0011425757
Au     -0.0000000000      0.0000000000      3.1939861261
Au     -2.5531163375     -2.5774580003     -0.9995777466
Pt      1.8063385509      0.0000000000     -1.0865575646
Pt      0.0154956651     -1.8068030771     -1.0903125009
Pt     -1.8031608857     -0.0173472398     -1.0859979126
Pt     -0.0044755729      1.8009036692     -1.0861750975
          13
 Step           17
Au      1.4380554461     -1.4114495554      1.2771042751
Au     -1.4411871305      1.4308835493      1.2822324542
Au     -1.4096087002     -1.4328029325      1.2705149520
Au      1.4201007414      1.4288285082      1.2770772707
Au     -2.5895445987      2.5484250470     -1.0089864661
Au      2.5739460645     -2.5369753045     -0.9961094503
Au      2.5454788537      2.5765635463     -1.0013592491
Au      0.0000000000     -0.0000000000      3.1938672869
Au     -2.5524007375     -2.5786534882     -0.9996702204
Pt      1.8065046773     -0.0000000000     -1.0866687110
Pt      0.0167100924     -1.8069868401     -1.0907186096
Pt     -1.8030654264     -0.0187073311     -1.0860598999
Pt     -0.0048256646      1.8006219902     -1.0862547283
          13
 Step           18
Au      1.4390649655     -1.4104753693      1.2775706706
Au     -1.4424397094      1.4313744891      1.2830721686
Au     -1.4084995269     -1.4334113058      1.2704817972
Au      1.4197810720      1.4291439677      1.2775357987
Au     -2.5915704714      2.5473884142     -1.0097845738
Au      2.5748049614     -2.5350995960     -0.9959387395
Au      2.5442280508      2.5776215018     -1.0015811808
Au      0.0000000000     -0.0000000000      3.1937457690
Au     -2.5516696816     -2.5798751942     -0.9997650781
Pt      1.8066754061     -0.0000000000     -1.0867822576
Pt      0.0179509499     -1.8071747880     -1.0911343648
Pt     -1.8029667779     -0.0200972564     -1.0861224143
Pt     -0.0051832958      1.8003334789     -1.0863350921
          13
 Step           19
Au      1.4400992184     -1.4094761217      1.2780496779
Au     -1.4437253640      1.4318797532      1.2839326001
Au     -1.4073618342     -1.4340332050      1.2704473334
Au      1.4194544934      1.4294663878      1.2780060982
Au     -2.5936457182      2.5463240871     -1.0106041307
Au      2.5756837464     -2.5331781100     -0.9957639540
Au      2.5429465611      2.5787034710     -1.0018090066
Au     -0.0000000000      0.0000000000      3.1936212490
Au     -2.5509212717     -2.5811263649     -0.9998625964
Pt      1.8068512508     -0.0000000000     -1.0868985096
Pt      0.0192215085     -1.8073674404     -1.0915609529
Pt     -1.8028645921     -0.0215207200     -1.0861855433
Pt     -0.0055494084      1.8000372928     -1.0864163057
          13
 Step           20
Au      1.4411276268     -1.4084813314      1.2785272082
Au     -1.4450061706      1.4323846186      1.2847883060
Au     -1.4062291994     -1.4346501489      1.2704125312
Au      1.4191307501      1.4297861504      1.2784742777
Au     -2.5957089209      2.5452634658     -1.0114210166
Au      2.5765563951     -2.5312677515     -0.9955902613
Au      2.5416723312      2.5797773116     -1.0020360192
Au     -0.0000000000      0.0000000000      3.1934974154
Au     -2.5501777389     -2.5823699326     -0.9999599007
Pt      1.8070270320      0.0000000000     -1.0870140326
Pt      0.0204840908     -1.8075591298     -1.0919858081
Pt     -1.8027618513     -0.0229355613     -1.0862473492
Pt     -0.0059131590      1.7997421329     -1.0864958827
          13
 Step           21
Au      1.4421381897     -1.4075026695      1.2789977173
Au     -1.4462671298      1.4328833706      1.2856292779
Au     -1.4051148534     -1.4352548907      1.2703777582
Au      1.4188136954      1.4300994421      1.2789348518
Au     -2.5977359052      2.5442190036     -1.0122257305
Au      2.5774127380     -2.5293909675     -0.9954196854
Au      2.5404203394      2.5808303791     -1.0022595833
Au     -0.0000000000      0.0000000000      3.1933757232
Au     -2.5494478936     -2.5835912853     -1.0000558461
Pt      1.8072006666     -0.0000000000     -1.0871274869
Pt      0.0217238155     -1.8077476715     -1.0924039941
Pt     -1.8026597852     -0.0243251680     -1.0863070601
Pt     -0.0062702969      1.7994514047     -1.0865728371
          13
 Step           22
Au      1.4431492382     -1.4065224336      1.2794697744
Au     -1.4475310816      1.4333852363      1.2864707512
Au     -1.4039985865     -1.4358583463      1.2703423441
Au      1.4184976554      1.4304118646      1.2793961585
Au     -2.5997633478      2.5431718122     -1.0130329114
Au      2.5782683136     -2.5275138598     -0.9952491300
Au      2.5391679770      2.5818816574     -1.0024837697
Au     -0.0000000000      0.0000000000      3.1932539739
Au     -2.5487186254     -2.5848124811     -1.0001521662
Pt      1.8073752801     -0.0000000000     -1.0872409379
Pt      0.0229630289     -1.8079365343     -1.0928231214
Pt     -1.8025565626     -0.0257146503     -1.0863657061
Pt     -0.0066272905      1.7991597932     -1.0866485041
          13
 Step           23
Au      1.4442056391     -1.4054970478      1.2799644330
Au     -1.4488542960      1.4339127458      1.2873500790
Au     -1.4028307564     -1.4364871629      1.2703046590
Au      1.4181687123      1.4307371868      1.2798787057
Au     -2.6018811756      2.5420752688     -1.0138785473
Au      2.5791610071     -2.5255531996     -0.9950710281
Au      2.5378597064      2.5829776071     -1.0027185663
Au     -0.0000000000      0.0000000000      3.1931267711
Au     -2.5479576717     -2.5860876430     -1.0002531566
Pt      1.8075586740     -0.0000000000     -1.0873594203
Pt      0.0242566211     -1.8081341200     -1.0932618561
Pt     -1.8024475200     -0.0271656032     -1.0864258017
Pt     -0.0069999495      1.7988542863     -1.0867261329
          13
 Step           24
Au      1.4452850679     -1.4044480579      1.2804713732
Au     -1.4502090721      1.4344550471      1.2882487025
Au     -1.4016358942     -1.4371278876      1.2702654324
Au      1.4178339394      1.4310684300      1.2803723543
Au     -2.6040446044      2.5409523162     -1.0147449858
Au      2.5800718362     -2.5235504689     -0.9948891469
Au      2.5365231935      2.5840948433     -1.0029590590
Au      0.0000000000     -0.0000000000      3.1929968086
Au     -2.5471812064     -2.5873897604     -1.0003567155
Pt      1.8077470543      0.0000000000     -1.0874804270
Pt      0.0255771639     -1.8083362651     -1.0937110108
Pt     -1.8023348382     -0.0286473078     -1.0864859749
Pt     -0.0073803542      1.7985412543     -1.0868039545
          13
 Step           25
Au      1.4463972772     -1.4033658849      1.2809952992
Au     -1.4516078783      1.4350173312      1.2891747604
Au     -1.4004030738     -1.4377861548      1.2702242445
Au      1.4174904328      1.4314084830      1.2808816138
Au     -2.6062731432      2.5397926162     -1.0156402557
Au      2.5810089280     -2.5214876390     -0.9947018453
Au      2.5351463960      2.5852432431     -1.0032074662
Au     -0.0000000000      0.0000000000      3.1928629186
Au     -2.5463823187     -2.5887305274     -1.0004638062
Pt      1.8079421915     -0.0000000000     -1.0876050501
Pt      0.0269364858     -1.8085448154     -1.0941747227
Pt     -1.8022173932     -0.0301730874     -1.0865466712
Pt     -0.0077718997      1.7982177861     -1.0868825494
          13
 Step           26
Au      1.4474788887     -1.4023122260      1.2815063803
Au     -1.4529710205      1.4355677463      1.2900754805
Au     -1.3992025359     -1.4384243651      1.2701833928
Au      1.4171578488      1.4317378916      1.2813774579
Au     -2.6084397464      2.5386622957     -1.0165134094
Au      2.5819188136     -2.5194823606     -0.9945197992
Au      2.5338078593      2.5863572201     -1.0034496501
Au     -0.0000000000      0.0000000000      3.1927327457
Au     -2.5456066577     -2.5900334379     -1.0005683277
Pt      1.8081329968      0.0000000000     -1.0877261810
Pt      0.0282569989     -1.8087479659     -1.0946265838
Pt     -1.8021018378     -0.0316559075     -1.0866043779
Pt     -0.0081522428      1.7979022343     -1.0869573749
          13
 Step           27
Au      1.4485030836     -1.4013134069      1.2819918979
Au     -1.4542644159      1.4360927453      1.2909284831
Au     -1.3980641777     -1.4390267340      1.2701438742
Au      1.4168444854      1.4320484154      1.2818475145
Au     -2.6104905388      2.5375896854     -1.0173426995
Au      2.5827790499     -2.5175846068     -0.9943475104
Au      2.5325409587      2.5874091152     -1.0036795961
Au     -0.0000000000      0.0000000000      3.1926095292
Au     -2.5448736280     -2.5912660571     -1.0006676489
Pt      1.8083146099     -0.0000000000     -1.0878408406
Pt      0.0295057648     -1.8089407497     -1.0950553758
Pt     -1.8019911928     -0.0330588657     -1.0866576478
Pt     -0.0085119672      1.7976024265     -1.0870265654
          13
 Step           28
Au      1.4494779136     -1.4003618048      1.2824555933
Au     -1.4554978903      1.4365964916      1.2917404214
Au     -1.3969792180     -1.4395980675      1.2701053755
Au      1.4165479007      1.4323424492      1.2822953888
Au     -2.6124415039      2.5365667185     -1.0181344949
Au      2.5835965329     -2.5157796938     -0.9941836176
Au      2.5313359145      2.5884072095     -1.0038990920
Au      0.0000000000     -0.0000000000      3.1924923113
Au     -2.5441776227     -2.5924379547     -1.0007625038
Pt      1.8084883261      0.0000000000     -1.0879499460
Pt      0.0306924243     -1.8091247650     -1.0954644276
Pt     -1.8018847570     -0.0343928686     -1.0867069144
Pt     -0.0088539213      1.7973160149     -1.0870906912
          13
 Step           29
Au      1.4505277734     -1.3993359578      1.2829567275
Au     -1.4568289605      1.4371435340      1.2926149103
Au     -1.3958091356     -1.4402111533      1.2700629261
Au      1.4162303628      1.4326574098      1.2827782545
Au     -2.6145415270      2.5354627802     -1.0189899740
Au      2.5844755255     -2.5138374271     -0.9940072077
Au      2.5300390333      2.5894786773     -1.0041361815
Au     -0.0000000000      0.0000000000      3.1923661425
Au     -2.5434299604     -2.5936985806     -1.0008650107
Pt      1.8086763361      0.0000000000     -1.0880674241
Pt      0.0319682679     -1.8093235301     -1.0959059985
Pt     -1.8017689032     -0.0358280569     -1.0867583807
Pt     -0.0092217062      1.7970063853     -1.0871578311
          13
 Step           30
Au      1.4515762356     -1.3983104203      1.2834589731
Au     -1.4581610141      1.4376944129      1.2934883184
Au     -1.3946389496     -1.4408211674      1.2700195368
Au      1.4159151412      1.4329702399      1.2832610244
Au     -2.6166376858      2.5343580018     -1.0198471104
Au      2.5853519123     -2.5118992875     -0.9938311268
Au      2.5287447717      2.5905452483     -1.0043736620
Au     -0.0000000000      0.0000000000      3.1922402153
Au     -2.5426852043     -2.5949560762     -1.0009677428
Pt      1.8088650379      0.0000000000     -1.0881847210
Pt      0.0332402894     -1.8095226011     -1.0963480422
Pt     -1.8016519364     -0.0372598738     -1.0868081812
Pt     -0.0095884894      1.7966959764     -1.0872229463
          13
 Step           31
Au      1.4525993222     -1.3973087203      1.2839508667
Au     -1.4594635207      1.4382367062      1.2943406576
Au     -1.3934954456     -1.4414141159      1.2699761641
Au      1.4156095237      1.4332737036      1.2837326364
Au     -2.6186819462      2.5332777530     -1.0206863269
Au      2.5862056696     -2.5100097697     -0.9936593988
Au      2.5274828500      2.5915824204     -1.0046061146
Au      0.0000000000     -0.0000000000      3.1921174185
Au     -2.5419605316     -2.5961815786     -1.0010683414
Pt      1.8090500771      0.0000000000     -1.0882991640
Pt      0.0344792466     -1.8097174814     -1.0967804703
Pt     -1.8015365715     -0.0386554734     -1.0868551334
Pt     -0.0099458669      1.7963918504     -1.0872844962
          13
 Step           32
Au      1.4535924702     -1.3963354541      1.2844301960
Au     -1.4607305028      1.4387681018      1.2951681004
Au     -1.3923838012     -1.4419873580      1.2699329821
Au      1.4153149245      1.4335663861      1.2841909406
Au     -2.6206650867      2.5322270496     -1.0215038355
Au      2.5870330497     -2.5081774849     -0.9934927850
Au      2.5262590315      2.5925855135     -1.0048325019
Au     -0.0000000000      0.0000000000      3.1919983094
Au     -2.5412593119     -2.5973695192     -1.0011663344
Pt      1.8092305552     -0.0000000000     -1.0884102556
Pt      0.0356794651     -1.8099073626     -1.0972013495
Pt     -1.8014234105     -0.0400085313     -1.0868990096
Pt     -0.0102922418      1.7960953493     -1.0873421886
          13
 Step           33
Au      1.4545555000     -1.3953909446      1.2848968156
Au     -1.4619615320      1.4392885520      1.2959704740
Au     -1.3913043206     -1.4425408051      1.2698899843
Au      1.4150314228      1.4338481992      1.2846357981
Au     -2.6225866754      2.5312063255     -1.0222994100
Au      2.5878339337     -2.5064029064     -0.9933313144
Au      2.5250736615      2.5935543202     -1.0050527713
Au     -0.0000000000      0.0000000000      3.1918829230
Au     -2.5405817883     -2.5985195855     -1.0012616781
Pt      1.8094063894     -0.0000000000     -1.0885179785
Pt      0.0368406068     -1.8100922952     -1.0976105717
Pt     -1.8013125457     -0.0413187170     -1.0869398031
Pt     -0.0106275447      1.7958065008     -1.0873960195
          13
 Step           34
Au      1.4555422523     -1.3944224182      1.2853768640
Au     -1.4632254412      1.4398273713      1.2967926354
Au     -1.3901966349     -1.4431053281      1.2698447235
Au      1.4147432674      1.4341348046      1.2850920777
Au     -2.6245540543      2.5301585432     -1.0231176056
Au      2.5886530948     -2.5045869835     -0.9931659537
Au      2.5238605777      2.5945428609     -1.0052792597
Au     -0.0000000000      0.0000000000      3.1917648166
Au     -2.5398902242     -2.5996959772     -1.0013597031
Pt      1.8095873841     -0.0000000000     -1.0886283684
Pt      0.0380274415     -1.8102826561     -1.0980310600
Pt     -1.8011977941     -0.0426591855     -1.0869797315
Pt     -0.0109704965      1.7955091156     -1.0874489220
          13
 Step           35
Au      1.4565515206     -1.3934309986      1.2858698805
Au     -1.4645208753      1.4403842561      1.2976335988
Au     -1.3890619894     -1.4436800693      1.2697971802
Au      1.4144509632      1.4344257194      1.2855592626
Au     -2.6265647422      2.5290848582     -1.0239576228
Au      2.5894894415     -2.5027320825     -0.9929969092
Au      2.5226213562      2.5955496725     -1.0055117394
Au      0.0000000000     -0.0000000000      3.1916441443
Au     -2.5391856366     -2.6008971422     -1.0014603139
Pt      1.8097733679      0.0000000000     -1.0887412899
Pt      0.0392383534     -1.8104782613     -1.0984623831
Pt     -1.8010792138     -0.0440281931     -1.0870186404
Pt     -0.0113206228      1.7952034611     -1.0875006962
          13
 Step           36
Au      1.4575331099     -1.3924660257      1.2863513976
Au     -1.4657834190      1.4409317344      1.2984515397
Au     -1.3879567987     -1.4442363669      1.2697496739
Au      1.4141691481      1.4347063813      1.2860141166
Au     -2.6285186541      2.5280387042     -1.0247777608
Au      2.5903013677     -2.5009306175     -0.9928325865
Au      2.5214177397      2.5965245339     -1.0057386711
Au     -0.0000000000      0.0000000000      3.1915269162
Au     -2.5385032168     -2.6020632381     -1.0015585073
Pt      1.8099550758      0.0000000000     -1.0888511359
Pt      0.0404129693     -1.8106694325     -1.0988831305
Pt     -1.8009627086     -0.0453575564     -1.0870545349
Pt     -0.0116604808      1.7949046893     -1.0875486926
          13
 Step           37
Au      1.4585272616     -1.3914880092      1.2868411760
Au     -1.4670647960      1.4414924565      1.2992800093
Au     -1.3868357703     -1.4447969571      1.2697002175
Au      1.4138863689      1.4349882027      1.2864752830
Au     -2.6304958240      2.5269773123     -1.0256116988
Au      2.5911221091     -2.4991088829     -0.9926662424
Au      2.5202005166      2.5975072656     -1.0059693750
Au      0.0000000000     -0.0000000000      3.1914083360
Au     -2.5378151530     -2.6032419522     -1.0016583082
Pt      1.8101399644     -0.0000000000     -1.0889624203
Pt      0.0415992909     -1.8108641026     -1.0993105693
Pt     -1.8008435000     -0.0467016618     -1.0870888472
Pt     -0.0120039675      1.7946004768     -1.0875948277
          13
 Step           38
Au      1.4595505588     -1.3904805787      1.2873475061
Au     -1.4683865604      1.4420761217      1.3001328328
Au     -1.3856801000     -1.4453710284      1.2696479089
Au      1.4135980555      1.4352757590      1.2869504861
Au     -2.6325291481      2.5258828521     -1.0264735370
Au      2.5919652900     -2.4972366534     -0.9924951076
Au      2.5189494772      2.5985140156     -1.0062077457
Au     -0.0000000000      0.0000000000      3.1912864383
Au     -2.5371101346     -2.6044528329     -1.0017614023
Pt      1.8103311472      0.0000000000     -1.0890769983
Pt      0.0428169410     -1.8110655558     -1.0997519147
Pt     -1.8007195344     -0.0480828317     -1.0871220353
Pt     -0.0123567566      1.7942856673     -1.0876397301
          13
 Step           39
Au      1.4605859073     -1.3894605123      1.2878620555
Au     -1.4697268162      1.4426733510      1.3009957821
Au     -1.3845089879     -1.4459488213      1.2695935439
Au      1.4133091859      1.4355641080      1.2874318264
Au     -2.6345845733      2.5247734930     -1.0273490804
Au      2.5928167465     -2.4953453765     -0.9923220443
Au      2.5176856290      2.5995277045     -1.0064498503
Au      0.0000000000     -0.0000000000      3.1911632702
Au     -2.5364001259     -2.6056755308     -1.0018660911
Pt      1.8105254658      0.0000000000     -1.0891929586